LAMMPS data file via write_data, version 29 Oct 2020, timestep = 20

60 atoms
1 atom types

-16.29 16.29 xlo xhi
-16.29 16.29 ylo yhi
-32.58 54.3 zlo zhi

Masses

1 12.011

Atoms # atomic

162493 1 -2.335261157723194 -0.7696887928501968 45.955615201043166 0 0 0
162496 1 -1.1192839709581326 -1.056665401084561 45.315896308671626 0 0 0
162497 1 -0.3286755005966084 -2.190366997552102 45.740879287731985 0 0 0
162513 1 -2.797339959829359 -1.607750016635695 47.03963003692572 0 0 0
162515 1 -0.7772130472468316 -3.003868784990924 46.79312700837626 0 0 0
162516 1 -2.0299003126738318 -2.708228419850376 47.45215886723922 0 0 0
162498 1 1.0662435335092528 -1.8183600360466192 45.65863991031281 0 0 0
162499 1 1.1377424342781581 -0.4547454867271095 45.18283020542223 0 0 0
162522 1 3.0454895958566945 -0.049542497138115524 46.6951580166832 0 0 0
162527 1 2.976085977834486 -1.373196239328982 47.15702408899521 0 0 0
162531 1 1.9717468359076302 -2.2707565385775714 46.631058305823274 0 0 0
162494 1 -2.6816523033502877 0.5986246715381696 46.26975376767649 0 0 0
162495 1 -0.2129878483708115 0.01600768512966755 44.97100300697715 0 0 0
162501 1 -1.8019152500309366 1.6398630156837535 45.934967590427824 0 0 0
162502 1 -0.5492279837578578 1.3442226372541073 45.275935733523475 0 0 0
162511 1 -3.3578125969124435 0.6062276803237214 47.54791692254089 0 0 0
162542 1 -1.5717794147981365 2.7201391170586815 46.86823745971295 0 0 0
162543 1 -0.1768603826911871 3.092146084850242 46.78599810330793 0 0 0
162500 1 2.1126493577660264 0.4165117558600959 45.69338252829117 0 0 0
162503 1 0.45511115656770124 2.241782933900196 45.80190151647794 0 0 0
162504 1 1.7662582040176944 1.7848252145033772 46.00752111112922 0 0 0
162551 1 2.4850169389956274 2.1644351836351308 47.203444917538285 0 0 0
162505 1 -0.4548091591875526 -2.243471403614735 51.21803941967521 0 0 0
162506 1 -2.1123473407330735 -0.41820022281750074 51.326558381711315 0 0 0
162508 1 -3.275323432102823 -1.0324220767835408 49.3915130349654 0 0 0
162509 1 -2.484714960982504 -2.1661236769511145 49.81649602350211 0 0 0
162510 1 -1.7659562080535534 -1.7865136916050883 51.012419819039394 0 0 0
162512 1 -3.429311504346438 -0.7573868716119412 48.02372662422242 0 0 0
162517 1 -1.8712633858464742 -2.991566878080441 48.861238440711695 0 0 0
162518 1 -0.5205331018062002 -3.4623200375865903 49.07306565111355 0 0 0
162519 1 0.21328986315708126 -0.01769614813446582 52.04893792787756 0 0 0
162525 1 2.6819543065552094 -0.6003131384990623 50.75018717533121 0 0 0
162526 1 3.3581145884984807 -0.6079161424051559 49.47202401271893 0 0 0
162528 1 3.134722901361196 -1.6565346818886624 48.56610366953089 0 0 0
162529 1 2.228426772710298 -2.7292077674032083 48.91099695524692 0 0 0
162530 1 1.50966803447894 -3.108817752232005 47.715073155076105 0 0 0
162532 1 0.15562719072748907 -3.4699230353776 47.79490249344549 0 0 0
162533 1 0.17716237721162656 -3.093834544358804 50.23394282541419 0 0 0
162534 1 1.5720814066112336 -2.7218275728447354 50.15170346985472 0 0 0
162535 1 1.8022172437207586 -1.641551476842077 51.08497334156926 0 0 0
162536 1 0.5495299818906092 -1.3459111054486852 51.74400520464658 0 0 0
162507 1 -3.045187584388716 0.047854026628617416 50.324782900395846 0 0 0
162514 1 -1.1374404160017235 0.45305701508721796 51.83711070641288 0 0 0
162537 1 -1.9714448218295426 2.269068066069204 50.388882612672866 0 0 0
162538 1 -1.509366039206171 3.1071292938072514 49.30486776933551 0 0 0
162539 1 -2.2281247876685013 2.727519319122765 48.10894397137381 0 0 0
162540 1 -3.1344209047907374 1.6548462231359535 48.453837259792564 0 0 0
162541 1 -0.1553251947101303 3.4682345796829828 49.225038449953196 0 0 0
162544 1 -1.0659415200164095 1.8166715595162621 51.36130100278261 0 0 0
162545 1 -2.9757839614142902 1.3715077691463307 49.862916832205286 0 0 0
162520 1 1.119585987348087 1.0549769477010607 51.70404464913087 0 0 0
162521 1 3.2756254180015616 1.030733594743403 47.62842789774615 0 0 0
162523 1 3.4296134875034467 0.7556984054965635 48.99621431097777 0 0 0
162524 1 2.3355631747418997 0.7680003292711681 51.06432575520347 0 0 0
162546 1 0.7775150502527457 3.0021803294056535 50.226813937230666 0 0 0
162547 1 2.0302023086512113 2.7065399499396103 49.56778207050018 0 0 0
162548 1 1.8715653680962443 2.9898783879613116 48.1587024941745 0 0 0
162549 1 0.5208350897458836 3.460631564924982 47.94687528872362 0 0 0
162550 1 0.3289775106959436 2.188678541203917 51.279061662534396 0 0 0
162552 1 2.7976419593312354 1.6060615516862735 49.980310907372775 0 0 0

Velocities

162493 -7.575717032048036e-07 8.055906298370641e-08 -5.313176149128903e-07
162496 -6.400672046588448e-07 1.7501669879483258e-07 -5.329618647542329e-07
162497 -6.181840050645163e-07 -3.514021241558864e-07 -5.668538744842436e-07
162513 1.7821848670025686e-07 3.369451877948291e-07 3.6147928917103646e-08
162515 2.2063668513138168e-07 -6.469771592282491e-07 -3.499048906568837e-07
162516 8.4990749014873e-08 4.823440420636703e-08 -3.4583961602331825e-07
162498 -7.751061285977636e-07 -2.498707061013879e-07 -1.2017260438377402e-07
162499 -7.854500442610419e-07 7.107951073536667e-08 8.221274382318343e-07
162522 -6.804402240288004e-07 -2.3189139082158988e-07 3.05395244456803e-07
162527 -5.858418909471567e-07 -9.332138963977096e-08 5.940336054968644e-07
162531 -1.0172030365540427e-06 3.9183658753137024e-07 4.0160494580771663e-07
162494 -6.37672704434098e-07 2.760217473224388e-08 -8.858042404524424e-07
162495 -3.604960157835794e-07 2.992722974979337e-07 1.1454142506678328e-07
162501 2.548243557644552e-07 -1.932026679444914e-07 2.3178395934710766e-07
162502 -1.3181222347905368e-07 3.3705689927205026e-07 -2.356258585459204e-07
162511 -1.0355004156871922e-09 -3.075524483364363e-07 -3.387046352933762e-07
162542 6.684894482120436e-07 -6.469955654278296e-07 3.469507422323591e-07
162543 4.985248947385285e-07 -5.991910409944667e-08 4.400079464981596e-07
162500 -8.318766383944117e-07 -8.689421082185974e-08 6.94513311069024e-07
162503 3.324140536417361e-07 1.9070572627786275e-07 -1.9578913926935567e-07
162504 5.064399330091385e-07 3.629820874612852e-07 7.53434061015799e-08
162551 9.954066392676993e-07 9.180971978926073e-07 -9.393243719070435e-08
162505 1.0983525007388066e-07 -5.267362297524634e-07 7.202487778113515e-07
162506 -5.550500087758312e-07 6.191440437503311e-09 4.79704698371447e-07
162508 5.045968267843763e-07 9.943909053397721e-08 1.626368018395437e-07
162509 8.931151067248017e-07 5.483406297106422e-07 -6.523715827418517e-08
162510 5.285573470596476e-07 3.8160904423212643e-07 -1.3933099940927575e-07
162512 6.23802651680187e-07 -9.001580911317411e-08 1.719840030330802e-07
162517 4.904770057032582e-07 4.266128152918383e-07 2.907701033300326e-08
162518 7.026803511228372e-07 7.258328709040247e-07 6.988683217128362e-08
162519 -5.626356627897402e-07 -6.597019663855895e-08 -2.895104697978939e-07
162525 3.991877762216584e-07 1.0336532995969132e-07 -7.476678777937261e-08
162526 6.080107771057441e-07 -3.8801975894804483e-07 -2.3845677595216496e-07
162528 2.524817637507388e-07 -5.839090308655973e-07 8.227597167110509e-08
162529 7.226988951620751e-07 -3.6305831491248233e-07 1.286072753881158e-07
162530 3.0091600809350534e-07 -2.2204541555174815e-07 2.0885865379522726e-07
162532 3.199623320339213e-07 -5.487668778794182e-08 -2.783785469033553e-07
162533 3.2092339207740834e-07 -2.5240214726712123e-07 7.423456687471365e-07
162534 5.891985445383435e-07 -2.525321021654222e-07 1.1234665655609618e-07
162535 -4.138115189645978e-08 3.224908546778939e-07 -3.276381766807752e-07
162536 -9.394358853977582e-08 -1.0939712442599138e-07 -5.13789113086253e-08
162507 -4.865324580881839e-07 -1.5256612732009103e-07 2.6585893861645145e-07
162514 -7.859888885388633e-07 5.264618023007966e-08 6.180608929621706e-07
162537 -6.935451878517881e-07 2.83241289395489e-07 1.6160231217192616e-07
162538 3.291287214516001e-07 -1.7654581141347514e-07 -4.0585850793631995e-08
162539 4.84156311256354e-07 -1.485888126244486e-07 -2.9137991378735747e-08
162540 1.9101006623062e-07 -3.340090859596592e-07 -1.4277565199045507e-07
162541 3.583539556315925e-07 -3.527150934734195e-07 -4.762901925674329e-07
162544 -7.191173580623921e-07 -7.755075786253145e-09 2.2798742890829276e-07
162545 -4.138085933463732e-07 -1.575793043027286e-07 2.0490731550103995e-07
162520 -6.700884051489284e-07 -1.1933379545365425e-07 -7.645611669741593e-07
162521 7.531881456478068e-07 2.45587638869376e-07 -3.578562931257667e-07
162523 -1.9265858333641782e-07 -1.3515035313786565e-07 -2.3146470546400272e-07
162524 -6.186276160522252e-07 5.7012418718687453e-08 -4.992975037630592e-07
162546 1.1238778123232596e-07 -4.794131583218976e-07 -3.4136784280797176e-07
162547 4.136173401902651e-07 2.801704628182987e-07 6.868558805694736e-08
162548 4.718754864687512e-07 6.050704767812256e-07 2.3654228222043502e-07
162549 5.69826424908046e-07 6.027134997405566e-07 1.1694241998846196e-07
162550 -4.7393701345712704e-07 1.2888238777824117e-07 7.2652970949941375e-09
162552 -6.598616637621148e-07 -2.6794808645797336e-07 -3.333329730911303e-07
